 Q-Chem 5.1, Q-Chem, Inc., Pleasanton, CA (2018)
 Q-Chem 5.1.1 for Intel X86 EM64T Linux

User input:
--------------------------------------------------------------
$molecule
0 1
S       -0.000001    0.232169   -0.446822
C       -1.330149   -0.799770    0.184043
C        1.330149   -0.799770    0.184040
H       -2.257664   -0.292990   -0.051734
H       -1.214715   -0.877868    1.259777
H       -1.305844   -1.774520   -0.291125
H        2.257665   -0.292987   -0.051737
H        1.305846   -1.774519   -0.291130
H        1.214716   -0.877870    1.259774
O        0.000000    1.471662    0.388354
$end

$rem
method				cvs-adc(2)-x
ee_singlets			10
max_scf_cycles			200
basis				gen
purecart			1111
cc_symmetry			false
symmetry			false
threads				30
mem_total			90000
mem_static			2000
adc_davidson_maxsubspace	200
adc_davidson_maxiter		500
cc_rest_occ			2
$end

$basis
****
O     0
aug-cc-pVTZ
****
S     0
aug-cc-pVTZ
****
H     0
cc-pVDZ
****
C     0
cc-pVTZ
****
$end
--------------------------------------------------------------

             Standard Nuclear Orientation (Angstroms)
    I     Atom           X                Y                Z
 ----------------------------------------------------------------
    1      S       0.0000003801     0.2322069452     0.4468022788
    2      C       1.3301483511    -0.7997867745    -0.1839732658
    3      C      -1.3301496489    -0.7997848822    -0.1839732389
    4      H       2.2576634481    -0.2929873375     0.0517615699
    5      H       1.2147154976    -0.8779763919    -1.2597007336
    6      H       1.3058421267    -1.7744962485     0.2912777968
    7      H      -2.2576655519    -0.2929811258     0.0517595235
    8      H      -1.3058478733    -1.7744933906     0.2912798779
    9      H      -1.2147155024    -0.8779766638    -1.2597004484
   10      O       0.0000011951     1.4716287470    -0.3884793774
 ----------------------------------------------------------------

   26    -551.6424113625      7.54E-09 Convergence criterion met
 Total energy in the final basis set = -551.64241136
  Excited state 1 (singlet, A)                                     [converged]
  Term symbol:  2 (1) A                                     R^2 =  4.98923e-12
  Excitation energy:                                             531.666932 eV
  Excited state 2 (singlet, A)                                     [converged]
  Term symbol:  3 (1) A                                     R^2 =  2.47659e-10
  Excitation energy:                                             532.202957 eV
  Excited state 3 (singlet, A)                                     [converged]
  Term symbol:  4 (1) A                                     R^2 =  1.59950e-11
  Excitation energy:                                             533.036886 eV
  Excited state 4 (singlet, A)                                     [converged]
  Term symbol:  5 (1) A                                     R^2 =  3.59021e-11
  Excitation energy:                                             533.404070 eV
  Excited state 5 (singlet, A)                                     [converged]
  Term symbol:  6 (1) A                                     R^2 =  4.71596e-11
  Excitation energy:                                             533.703474 eV
  Excited state 6 (singlet, A)                                     [converged]
  Term symbol:  7 (1) A                                     R^2 =  2.92353e-09
  Excitation energy:                                             534.043844 eV
  Excited state 7 (singlet, A)                                     [converged]
  Term symbol:  8 (1) A                                     R^2 =  5.17588e-10
  Excitation energy:                                             534.469613 eV
  Excited state 8 (singlet, A)                                     [converged]
  Term symbol:  9 (1) A                                     R^2 =  1.84508e-09
  Excitation energy:                                             535.444288 eV
  Excited state 9 (singlet, A)                                     [converged]
  Term symbol:  10 (1) A                                    R^2 =  8.83943e-07
  Excitation energy:                                             535.880353 eV
  Excited state 10 (singlet, A)                                     [converged]
  Term symbol:  11 (1) A                                    R^2 =  1.39370e-08
  Excitation energy:                                             535.894508 eV

                    Orbital Energies (a.u.)
 --------------------------------------------------------------

 Alpha MOs
 -- Occupied --
-92.069 -20.503 -11.261 -11.261  -9.056  -6.738  -6.738  -6.736
 -1.336  -1.069  -0.979  -0.817  -0.647  -0.631  -0.624  -0.588
 -0.564  -0.545  -0.515  -0.419  -0.369

          Ground-State Mulliken Net Atomic Charges

     Atom                 Charge (a.u.)
  ----------------------------------------
      1 S                     0.601180
      2 C                     0.042847
      3 C                     0.042845
      4 H                     0.037620
      5 H                     0.028899
      6 H                     0.021434
      7 H                     0.037621
      8 H                     0.021434
      9 H                     0.028899
     10 O                    -0.862780
  ----------------------------------------
  Sum of atomic charges =    -0.000000

                    Cartesian Multipole Moments
 -----------------------------------------------------------------
    Charge (ESU x 10^10)
                -0.0000
    Dipole Moment (Debye)
         X      -0.0000      Y      -4.5901      Z       0.6435
       Tot       4.6350
    Quadrupole Moments (Debye-Ang)
        XX     -28.3771     XY      -0.0000     YY     -37.0905
        XZ       0.0000     YZ       2.0081     ZZ     -33.4509

 Total job time:  2095.83s(wall), 37209.31s(cpu)
        *  Thank you very much for using Q-Chem.  Have a nice day.  *
