 Q-Chem 5.1, Q-Chem, Inc., Pleasanton, CA (2018)
 Q-Chem 5.1.1 for Intel X86 EM64T Linux

User input:
--------------------------------------------------------------
$molecule
0 1
H       -0.000000    0.000000   -2.366583
C       -0.000000   -0.000000   -1.289235
N       -0.000000    1.184358   -0.683787
C       -0.000000    1.116511    0.644615
H       -0.000000    2.049521    1.183291
N        0.000000    0.000000    1.367578
C       -0.000000   -1.116511    0.644615
H       -0.000000   -2.049521    1.183291
N       -0.000000   -1.184358   -0.683787
$end

$rem
method				cvs-adc(2)-x
ee_singlets			10
basis				gen
purecart			1111
cc_symmetry			false
symmetry			false
threads				30
mem_total			90000
mem_static			2000
adc_davidson_maxsubspace	200
adc_davidson_maxiter		500
cc_rest_occ			6
$end

$basis
****
N     0
aug-cc-pVTZ
****
C     0
aug-cc-pVTZ
****
H     0
cc-pVDZ
****
$end
--------------------------------------------------------------

             Standard Nuclear Orientation (Angstroms)
    I     Atom           X                Y                Z
 ----------------------------------------------------------------
    1      H       0.0000000000     0.0000000000     2.3665829286
    2      C       0.0000000000     0.0000000000     1.2892349286
    3      N      -1.1843580000     0.0000000000     0.6837869286
    4      C      -1.1165110000    -0.0000000000    -0.6446150714
    5      H      -2.0495210000    -0.0000000000    -1.1832910714
    6      N       0.0000000000    -0.0000000000    -1.3675780714
    7      C       1.1165110000    -0.0000000000    -0.6446150714
    8      H       2.0495210000    -0.0000000000    -1.1832910714
    9      N       1.1843580000     0.0000000000     0.6837869286
 ----------------------------------------------------------------

   16    -278.7877691576      3.55E-09 Convergence criterion met
 Total energy in the final basis set = -278.78776916
  Excited state 1 (singlet, A)                                     [converged]
  Term symbol:  2 (1) A                                     R^2 =  2.71420e-11
  Excitation energy:                                             286.255870 eV
  Excited state 2 (singlet, A)                                     [converged]
  Term symbol:  3 (1) A                                     R^2 =  2.77448e-11
  Excitation energy:                                             286.255885 eV
  Excited state 3 (singlet, A)                                     [converged]
  Term symbol:  4 (1) A                                     R^2 =  2.74838e-11
  Excitation energy:                                             286.264376 eV
  Excited state 4 (singlet, A)                                     [converged]
  Term symbol:  5 (1) A                                     R^2 =  2.66833e-11
  Excitation energy:                                             287.592137 eV
  Excited state 5 (singlet, A)                                     [converged]
  Term symbol:  6 (1) A                                     R^2 =  2.64458e-11
  Excitation energy:                                             287.592180 eV
  Excited state 6 (singlet, A)                                     [converged]
  Term symbol:  7 (1) A                                     R^2 =  2.65286e-11
  Excitation energy:                                             287.593136 eV
  Excited state 7 (singlet, A)                                     [converged]
  Term symbol:  8 (1) A                                     R^2 =  2.02543e-10
  Excitation energy:                                             290.104643 eV
  Excited state 8 (singlet, A)                                     [converged]
  Term symbol:  9 (1) A                                     R^2 =  3.19284e-09
  Excitation energy:                                             290.104658 eV
  Excited state 9 (singlet, A)                                     [converged]
  Term symbol:  10 (1) A                                    R^2 =  1.15494e-09
  Excitation energy:                                             290.105615 eV
  Excited state 10 (singlet, A)                                     [converged]
  Term symbol:  11 (1) A                                    R^2 =  7.07363e-07
  Excitation energy:                                             290.842321 eV

             Orbital Energies (a.u.) and Symmetries
 --------------------------------------------------------------

 Alpha MOs, Restricted
 -- Occupied --
-15.588 -15.588 -15.587 -11.341 -11.341 -11.341  -1.369  -1.220
  1 A1    1 B1    2 A1    3 A1    2 B1    4 A1    5 A1    3 B1
 -1.220  -0.936  -0.936  -0.767  -0.750  -0.618  -0.618  -0.616
  6 A1    7 A1    4 B1    8 A1    5 B1    9 A1    6 B1    1 B2
 -0.578  -0.442  -0.442  -0.442  -0.442
 10 A1    1 A2    2 B2   11 A1    7 B1

 Beta MOs, Restricted
 -- Occupied --
-15.588 -15.588 -15.587 -11.341 -11.341 -11.341  -1.369  -1.220
  1 A1    1 B1    2 A1    3 A1    2 B1    4 A1    5 A1    3 B1
 -1.220  -0.936  -0.936  -0.767  -0.750  -0.618  -0.618  -0.616
  6 A1    7 A1    4 B1    8 A1    5 B1    9 A1    6 B1    1 B2
 -0.578  -0.442  -0.442  -0.442  -0.442
 10 A1    1 A2    2 B2   11 A1    7 B1

          Ground-State Mulliken Net Atomic Charges

     Atom                 Charge (a.u.)
  ----------------------------------------
      1 H                     0.093848
      2 C                     0.179009
      3 N                    -0.272851
      4 C                     0.179004
      5 H                     0.093849
      6 N                    -0.272860
      7 C                     0.179004
      8 H                     0.093849
      9 N                    -0.272851
  ----------------------------------------
  Sum of atomic charges =     0.000000

                    Cartesian Multipole Moments
 -----------------------------------------------------------------
    Charge (ESU x 10^10)
                 0.0000
    Dipole Moment (Debye)
         X       0.0000      Y       0.0000      Z       0.0000
       Tot       0.0000
    Quadrupole Moments (Debye-Ang)
        XX     -35.0617     XY       0.0000     YY     -34.6339
        XZ      -0.0000     YZ      -0.0000     ZZ     -35.0617

 Total job time:  67411.58s(wall), 204814.67s(cpu)
        *  Thank you very much for using Q-Chem.  Have a nice day.  *
