 Q-Chem 5.1, Q-Chem, Inc., Pleasanton, CA (2018)
 Q-Chem 5.1.1 for Intel X86 EM64T Linux

User input:
--------------------------------------------------------------
$molecule
0 1
 N     0.000000     0.147695     0.628825
 O     0.000000    -0.074056    -0.567478
 H     0.000000    -0.775910     1.123303
$end

$rem
method				cvs-adc(2)-x
ee_singlets			10
basis				gen
purecart			1111
cc_symmetry			false
symmetry			false
threads				30
mem_total			80000
mem_static			2000
adc_davidson_maxsubspace	200
adc_davidson_maxiter		500
cc_rest_occ			2
$end

$basis
****
O     0
aug-cc-pVTZ
****
N     0
aug-cc-pVTZ
****
H     0
cc-pVDZ
****
$end
--------------------------------------------------------------

             Standard Nuclear Orientation (Angstroms)
    I     Atom           X                Y                Z
 ----------------------------------------------------------------
    1      N       0.5710524225     0.1552227378    -0.0000000000
    2      O      -0.6301317640    -0.0383513409     0.0000000000
    3      H       1.0436871547    -0.7797484374     0.0000000000
 ----------------------------------------------------------------

   16    -129.8362970446      4.86E-09 Convergence criterion met
 Total energy in the final basis set = -129.83629704
  Excited state 1 (singlet, A)                                     [converged]
  Term symbol:  2 (1) A                                     R^2 =  3.35411e-10
  Excitation energy:                                             398.286736 eV
  Excited state 2 (singlet, A)                                     [converged]
  Term symbol:  3 (1) A                                     R^2 =  1.35111e-08
  Excitation energy:                                             403.982137 eV
  Excited state 3 (singlet, A)                                     [converged]
  Term symbol:  4 (1) A                                     R^2 =  1.81646e-09
  Excitation energy:                                             404.750063 eV
  Excited state 4 (singlet, A)                                     [converged]
  Term symbol:  5 (1) A                                     R^2 =  1.50077e-09
  Excitation energy:                                             406.402682 eV
  Excited state 5 (singlet, A)                                     [converged]
  Term symbol:  6 (1) A                                     R^2 =  1.86414e-07
  Excitation energy:                                             406.996863 eV
  Excited state 6 (singlet, A)                                     [converged]
  Term symbol:  7 (1) A                                     R^2 =  4.74597e-09
  Excitation energy:                                             407.245829 eV
  Excited state 7 (singlet, A)                                     [converged]
  Term symbol:  8 (1) A                                     R^2 =  3.47874e-08
  Excitation energy:                                             408.563551 eV
  Excited state 8 (singlet, A)                                     [converged]
  Term symbol:  9 (1) A                                     R^2 =  2.43292e-08
  Excitation energy:                                             409.148386 eV
  Excited state 9 (singlet, A)                                     [converged]
  Term symbol:  10 (1) A                                    R^2 =  6.54673e-07
  Excitation energy:                                             409.364955 eV
  Excited state 10 (singlet, A)                                     [converged]
  Term symbol:  11 (1) A                                    R^2 =  6.21613e-08
  Excitation energy:                                             409.540516 eV

             Orbital Energies (a.u.) and Symmetries
 --------------------------------------------------------------

 Alpha MOs, Restricted
 -- Occupied --
-20.657 -15.716  -1.524  -0.998  -0.745  -0.664  -0.592  -0.434
  1 A'    2 A'    3 A'    4 A'    5 A'    6 A'    1 A"    7 A'

 Beta MOs, Restricted
 -- Occupied --
-20.657 -15.716  -1.524  -0.998  -0.745  -0.664  -0.592  -0.434
  1 A'    2 A'    3 A'    4 A'    5 A'    6 A'    1 A"    7 A'

          Ground-State Mulliken Net Atomic Charges

     Atom                 Charge (a.u.)
  ----------------------------------------
      1 N                     0.212355
      2 O                    -0.262818
      3 H                     0.050464
  ----------------------------------------
  Sum of atomic charges =     0.000000

                    Cartesian Multipole Moments
 -----------------------------------------------------------------
    Charge (ESU x 10^10)
                -0.0000
    Dipole Moment (Debye)
         X       1.4669      Y      -1.3599      Z       0.0000
       Tot       2.0003
    Quadrupole Moments (Debye-Ang)
        XX     -11.2152     XY      -1.7103     YY     -11.4143
        XZ       0.0000     YZ      -0.0000     ZZ     -10.7486

 Total job time:  361.14s(wall), 4226.11s(cpu)
        *  Thank you very much for using Q-Chem.  Have a nice day.  *
