 Q-Chem 5.1, Q-Chem, Inc., Pleasanton, CA (2018)
 Q-Chem 5.1.1 for Intel X86 EM64T Linux

User input:
--------------------------------------------------------------
$molecule
0 1
N          0.00000        0.00000       -1.21202
N          0.00000        0.00000       -0.06157
O          0.00000        0.00000        1.11439
$end

$rem
method				cvs-adc(2)-x
ee_singlets			10
basis				gen
purecart			1111
cc_symmetry			false
symmetry			false
threads				30
mem_total			90000
mem_static			2000
adc_davidson_maxsubspace	200
adc_davidson_maxiter		500
cc_rest_occ			3
$end

$basis
****
O     0
aug-cc-pVTZ
****
N     0
aug-cc-pVTZ
****
$end
--------------------------------------------------------------

             Standard Nuclear Orientation (Angstroms)
    I     Atom           X                Y                Z
 ----------------------------------------------------------------
    1      N       0.0000000000     0.0000000000    -1.2120195455
    2      N       0.0000000000     0.0000000000    -0.0615695455
    3      O       0.0000000000     0.0000000000     1.1143904545
 ----------------------------------------------------------------

   16    -183.7454606096      8.29E-09 Convergence criterion met
 Total energy in the final basis set = -183.74546061
  Excited state 1 (singlet, A)                                     [converged]
  Term symbol:  2 (1) A                                     R^2 =  3.68798e-12
  Excitation energy:                                             400.293416 eV
  Excited state 2 (singlet, A)                                     [converged]
  Term symbol:  3 (1) A                                     R^2 =  3.60693e-12
  Excitation energy:                                             400.293416 eV
  Excited state 3 (singlet, A)                                     [converged]
  Term symbol:  4 (1) A                                     R^2 =  2.60440e-10
  Excitation energy:                                             403.338720 eV
  Excited state 4 (singlet, A)                                     [converged]
  Term symbol:  5 (1) A                                     R^2 =  1.22698e-10
  Excitation energy:                                             404.308379 eV
  Excited state 5 (singlet, A)                                     [converged]
  Term symbol:  6 (1) A                                     R^2 =  1.34724e-10
  Excitation energy:                                             404.308379 eV
  Excited state 6 (singlet, A)                                     [converged]
  Term symbol:  7 (1) A                                     R^2 =  2.15857e-11
  Excitation energy:                                             406.004725 eV
  Excited state 7 (singlet, A)                                     [converged]
  Term symbol:  8 (1) A                                     R^2 =  1.81558e-11
  Excitation energy:                                             406.004725 eV
  Excited state 8 (singlet, A)                                     [converged]
  Term symbol:  9 (1) A                                     R^2 =  1.87691e-08
  Excitation energy:                                             406.217736 eV
  Excited state 9 (singlet, A)                                     [converged]
  Term symbol:  10 (1) A                                    R^2 =  1.80762e-07
  Excitation energy:                                             406.726951 eV
  Excited state 10 (singlet, A)                                     [converged]
  Term symbol:  11 (1) A                                    R^2 =  6.46130e-07
  Excitation energy:                                             407.287303 eV

                    Orbital Energies (a.u.)
 --------------------------------------------------------------

 Alpha MOs
 -- Occupied --
-20.665 -15.851 -15.702  -1.619  -1.412  -0.840  -0.762  -0.762
 -0.698  -0.488  -0.488

          Ground-State Mulliken Net Atomic Charges

     Atom                 Charge (a.u.)
  ----------------------------------------
      1 N                    -0.319068
      2 N                     0.760817
      3 O                    -0.441749
  ----------------------------------------
  Sum of atomic charges =     0.000000

                    Cartesian Multipole Moments
 -----------------------------------------------------------------
    Charge (ESU x 10^10)
                 0.0000
    Dipole Moment (Debye)
         X      -0.0000      Y      -0.0000      Z      -0.4499
       Tot       0.4499
    Quadrupole Moments (Debye-Ang)
        XX     -15.5095     XY      -0.0000     YY     -15.5095
        XZ       0.0000     YZ      -0.0000     ZZ     -19.2339

 Total job time:  855.69s(wall), 13161.31s(cpu)
        *  Thank you very much for using Q-Chem.  Have a nice day.  *
