 Q-Chem 5.1, Q-Chem, Inc., Pleasanton, CA (2018)
 Q-Chem 5.1.1 for Intel X86 EM64T Linux

User input:
--------------------------------------------------------------
$molecule
0 1
N        1.010145   -0.339756    0.00000
N        0.138737    0.506079    0.00000
F       -1.101521   -0.152850    0.00000
H        1.871520    0.211391    0.00000
$end

$rem
method				cvs-adc(2)-x
ee_singlets			10
basis				gen
purecart			1111
cc_symmetry			false
symmetry			false
threads				30
mem_total			80000
mem_static			2000
adc_davidson_maxsubspace	200
adc_davidson_maxiter		500
cc_rest_occ			3
$end

$basis
****
N     0
aug-cc-pVTZ
****
F     0
cc-pVTZ
****
H     0
cc-pVDZ
****
$end
--------------------------------------------------------------

             Standard Nuclear Orientation (Angstroms)
    I     Atom           X                Y                Z
 ----------------------------------------------------------------
    1      N       1.0101449133    -0.3397557216     0.0000000000
    2      N       0.1387366104     0.5060789664    -0.0000000000
    3      F      -1.1015211536    -0.1528504778     0.0000000000
    4      H       1.8715197160     0.2113915869    -0.0000000000
 ----------------------------------------------------------------

   19    -208.8852900100      3.36E-09 Convergence criterion met
 Total energy in the final basis set = -208.88529001
  Excited state 1 (singlet, A)                                     [converged]
  Term symbol:  2 (1) A                                     R^2 =  1.08232e-12
  Excitation energy:                                             398.376511 eV
  Excited state 2 (singlet, A)                                     [converged]
  Term symbol:  3 (1) A                                     R^2 =  1.21693e-12
  Excitation energy:                                             400.659417 eV
  Excited state 3 (singlet, A)                                     [converged]
  Term symbol:  4 (1) A                                     R^2 =  6.94925e-12
  Excitation energy:                                             403.014451 eV
  Excited state 4 (singlet, A)                                     [converged]
  Term symbol:  5 (1) A                                     R^2 =  1.57214e-11
  Excitation energy:                                             403.619983 eV
  Excited state 5 (singlet, A)                                     [converged]
  Term symbol:  6 (1) A                                     R^2 =  9.75828e-09
  Excitation energy:                                             404.111346 eV
  Excited state 6 (singlet, A)                                     [converged]
  Term symbol:  7 (1) A                                     R^2 =  6.44255e-10
  Excitation energy:                                             405.481221 eV
  Excited state 7 (singlet, A)                                     [converged]
  Term symbol:  8 (1) A                                     R^2 =  4.26867e-12
  Excitation energy:                                             405.592098 eV
  Excited state 8 (singlet, A)                                     [converged]
  Term symbol:  9 (1) A                                     R^2 =  7.86988e-09
  Excitation energy:                                             406.074917 eV
  Excited state 9 (singlet, A)                                     [converged]
  Term symbol:  10 (1) A                                    R^2 =  9.43739e-07
  Excitation energy:                                             406.330652 eV
  Excited state 10 (singlet, A)                                     [converged]
  Term symbol:  11 (1) A                                    R^2 =  4.00393e-07
  Excitation energy:                                             407.096087 eV

             Orbital Energies (a.u.) and Symmetries
 --------------------------------------------------------------

 Alpha MOs, Restricted
 -- Occupied --
-26.322 -15.763 -15.671  -1.642  -1.399  -0.941  -0.771  -0.714
  1 A'    2 A'    3 A'    4 A'    5 A'    6 A'    7 A'    8 A'
 -0.709  -0.618  -0.544  -0.490
  1 A"    9 A'    2 A"   10 A'

 Beta MOs, Restricted
 -- Occupied --
-26.322 -15.763 -15.671  -1.642  -1.399  -0.941  -0.771  -0.714
  1 A'    2 A'    3 A'    4 A'    5 A'    6 A'    7 A'    8 A'
 -0.709  -0.618  -0.544  -0.490
  1 A"    9 A'    2 A"   10 A'

          Ground-State Mulliken Net Atomic Charges

     Atom                 Charge (a.u.)
  ----------------------------------------
      1 N                     0.084592
      2 N                     0.014957
      3 F                    -0.173738
      4 H                     0.074189
  ----------------------------------------
  Sum of atomic charges =    -0.000000

                    Cartesian Multipole Moments
 -----------------------------------------------------------------
    Charge (ESU x 10^10)
                -0.0000
    Dipole Moment (Debye)
         X       2.5666      Y       0.8524      Z      -0.0000
       Tot       2.7045
    Quadrupole Moments (Debye-Ang)
        XX     -13.1900     XY       1.1939     YY     -18.0122
        XZ       0.0000     YZ       0.0000     ZZ     -16.0303

 Total job time:  946.39s(wall), 14816.43s(cpu)
        *  Thank you very much for using Q-Chem.  Have a nice day.  *
