 Q-Chem 5.1, Q-Chem, Inc., Pleasanton, CA (2018)
 Q-Chem 5.1.1 for Intel X86 EM64T Linux

User input:
--------------------------------------------------------------
$molecule
0 1
 C     0.000000    0.000000   -0.531273
 O     0.000000    0.000000    0.676162
 H     0.000000    0.930533   -1.110830
 H     0.000000   -0.930533   -1.110830
$end

$rem
method				cvs-adc(2)-x
ee_singlets			10
basis				gen
purecart			1111
cc_symmetry			false
symmetry			false
threads				30
mem_total			90000
mem_static			2000
adc_davidson_maxsubspace	200
adc_davidson_maxiter		500
cc_rest_occ			2
$end

$basis
****
O     0
aug-cc-pVTZ
****
H     0
cc-pVDZ
****
C     0
aug-cc-pVTZ
****
$end
--------------------------------------------------------------

             Standard Nuclear Orientation (Angstroms)
    I     Atom           X                Y                Z
 ----------------------------------------------------------------
    1      C       0.0000000000    -0.0000000000     0.5312728750
    2      O      -0.0000000000     0.0000000000    -0.6761621250
    3      H       0.9305330000    -0.0000000000     1.1108298750
    4      H      -0.9305330000    -0.0000000000     1.1108298750
 ----------------------------------------------------------------

   16    -113.9108696292      4.18E-09 Convergence criterion met
 Total energy in the final basis set = -113.91086963
  Excited state 1 (singlet, A)                                     [converged]
  Term symbol:  2 (1) A                                     R^2 =  5.70218e-12
  Excitation energy:                                             285.724578 eV
  Excited state 2 (singlet, A)                                     [converged]
  Term symbol:  3 (1) A                                     R^2 =  4.92337e-12
  Excitation energy:                                             290.457837 eV
  Excited state 3 (singlet, A)                                     [converged]
  Term symbol:  4 (1) A                                     R^2 =  1.02869e-09
  Excitation energy:                                             291.421327 eV
  Excited state 4 (singlet, A)                                     [converged]
  Term symbol:  5 (1) A                                     R^2 =  2.65594e-11
  Excitation energy:                                             291.475834 eV
  Excited state 5 (singlet, A)                                     [converged]
  Term symbol:  6 (1) A                                     R^2 =  1.74047e-09
  Excitation energy:                                             291.950545 eV
  Excited state 6 (singlet, A)                                     [converged]
  Term symbol:  7 (1) A                                     R^2 =  1.20511e-08
  Excitation energy:                                             292.197036 eV
  Excited state 7 (singlet, A)                                     [converged]
  Term symbol:  8 (1) A                                     R^2 =  6.77451e-11
  Excitation energy:                                             293.387585 eV
  Excited state 8 (singlet, A)                                     [converged]
  Term symbol:  9 (1) A                                     R^2 =  2.98466e-10
  Excitation energy:                                             294.254583 eV
  Excited state 9 (singlet, A)                                     [converged]
  Term symbol:  10 (1) A                                    R^2 =  1.86980e-07
  Excitation energy:                                             294.611159 eV
  Excited state 10 (singlet, A)                                     [converged]
  Term symbol:  11 (1) A                                    R^2 =  7.08515e-07
  Excitation energy:                                             294.830360 eV

             Orbital Energies (a.u.) and Symmetries
 --------------------------------------------------------------

 Alpha MOs, Restricted
 -- Occupied --
-20.579 -11.342  -1.406  -0.874  -0.696  -0.653  -0.537  -0.444
  1 A1    2 A1    3 A1    4 A1    1 B1    5 A1    1 B2    2 B1

 Beta MOs, Restricted
 -- Occupied --
-20.579 -11.342  -1.406  -0.874  -0.696  -0.653  -0.537  -0.444
  1 A1    2 A1    3 A1    4 A1    1 B1    5 A1    1 B2    2 B1

          Ground-State Mulliken Net Atomic Charges

     Atom                 Charge (a.u.)
  ----------------------------------------
      1 C                     0.373508
      2 O                    -0.323271
      3 H                    -0.025118
      4 H                    -0.025118
  ----------------------------------------
  Sum of atomic charges =     0.000000

                    Cartesian Multipole Moments
 -----------------------------------------------------------------
    Charge (ESU x 10^10)
                 0.0000
    Dipole Moment (Debye)
         X       0.0000      Y       0.0000      Z       2.8739
       Tot       2.8739
    Quadrupole Moments (Debye-Ang)
        XX     -11.4305     XY      -0.0000     YY     -11.7599
        XZ       0.0000     YZ       0.0000     ZZ     -12.0693

 Total job time:  388.99s(wall), 4311.80s(cpu)
        *  Thank you very much for using Q-Chem.  Have a nice day.  *
