 Q-Chem 5.1, Q-Chem, Inc., Pleasanton, CA (2018)
 Q-Chem 5.1.1 for Intel X86 EM64T Linux

User input:
--------------------------------------------------------------
$molecule
0 1
 C    -0.258755    -1.075115     0.000000
 C    -0.373897     1.119080     0.000000
 C     0.929706     0.693233     0.000000
 N    -1.119573    -0.025708     0.000000 ! different
 N     0.994934    -0.672206     0.000000
 H    -2.120859    -0.080300     0.000000
 H    -0.816615     2.092834     0.000000
 H     1.813291     1.298683     0.000000
 H    -0.593771    -2.092721     0.000000
$end

$rem
method				cvs-adc(2)-x
ee_singlets			12
basis				mixed
purecart			1111
cc_symmetry			false
symmetry			false
threads				30
mem_total			80000
mem_static			2000
adc_davidson_maxsubspace	200
adc_davidson_maxiter		500
cc_rest_occ			5
gui				2
$end

$basis
****
C     1
aug-cc-pVTZ
****
C     2
aug-cc-pVTZ
****
C     3
aug-cc-pVTZ
****
N     4
cc-pVTZ
****
N     5
aug-cc-pVTZ
****
H     6
cc-pVDZ
****
H     7
cc-pVDZ
****
H     8
cc-pVDZ
****
H     9
cc-pVDZ
****
$end
--------------------------------------------------------------

             Standard Nuclear Orientation (Angstroms)
    I     Atom           X                Y                Z
 ----------------------------------------------------------------
    1      C      -0.2587550000    -1.0751150000     0.0000000000
    2      C      -0.3738970000     1.1190800000     0.0000000000
    3      C       0.9297060000     0.6932330000     0.0000000000
    4      N      -1.1195730000    -0.0257080000     0.0000000000
    5      N       0.9949340000    -0.6722060000     0.0000000000
    6      H      -2.1208590000    -0.0803000000     0.0000000000
    7      H      -0.8166150000     2.0928340000     0.0000000000
    8      H       1.8132910000     1.2986830000     0.0000000000
    9      H      -0.5937710000    -2.0927210000     0.0000000000
 ----------------------------------------------------------------

   19    -224.8915556891      3.57E-09 Convergence criterion met
 Total energy in the final basis set = -224.89155569
  Term symbol:  2 (1) A                                     R^2 =  1.10283e-11
  Excitation energy:                                             286.345930 eV
  Term symbol:  3 (1) A                                     R^2 =  9.28278e-12
  Excitation energy:                                             286.578093 eV
  Term symbol:  4 (1) A                                     R^2 =  8.08325e-12
  Excitation energy:                                             287.077108 eV
  Term symbol:  5 (1) A                                     R^2 =  4.56198e-11
  Excitation energy:                                             287.379153 eV
  Term symbol:  6 (1) A                                     R^2 =  4.83310e-11
  Excitation energy:                                             287.472814 eV
  Term symbol:  7 (1) A                                     R^2 =  8.31181e-12
  Excitation energy:                                             287.509121 eV
  Term symbol:  8 (1) A                                     R^2 =  6.37789e-11
  Excitation energy:                                             287.846207 eV
  Term symbol:  9 (1) A                                     R^2 =  3.23685e-10
  Excitation energy:                                             288.239444 eV
  Term symbol:  10 (1) A                                    R^2 =  3.05683e-10
  Excitation energy:                                             288.298159 eV
  Excited state 10 (singlet, A)                                    [converged]
  Term symbol:  11 (1) A                                    R^2 =  1.42211e-10
  Excitation energy:                                             288.342854 eV
  Excited state 11 (singlet, A)                                    [converged]
  Term symbol:  12 (1) A                                    R^2 =  7.95113e-11
  Excitation energy:                                             288.497302 eV
  Excited state 12 (singlet, A)                                    [converged]
  Term symbol:  13 (1) A                                    R^2 =  8.55939e-07
  Excitation energy:                                             288.498445 eV

                    Orbital Energies (a.u.)
 --------------------------------------------------------------

 Alpha MOs
 -- Occupied --
-15.624 -15.545 -11.295 -11.259 -11.241  -1.346  -1.170  -1.009
 -0.832  -0.803  -0.762  -0.611  -0.605  -0.602  -0.572  -0.438
 -0.403  -0.320

          Ground-State Mulliken Net Atomic Charges

     Atom                 Charge (a.u.)
  ----------------------------------------
      1 C                    -0.017544
      2 C                     0.081654
      3 C                     0.103763
      4 N                     0.043878
      5 N                    -0.099584
      6 H                     0.099776
      7 H                    -0.098368
      8 H                    -0.054474
      9 H                    -0.059100
  ----------------------------------------
  Sum of atomic charges =    -0.000000

                    Cartesian Multipole Moments
 -----------------------------------------------------------------
    Charge (ESU x 10^10)
                -0.0000
    Dipole Moment (Debye)
         X      -3.8086      Y       0.8864      Z      -0.0000
       Tot       3.9104
    Quadrupole Moments (Debye-Ang)
        XX     -26.0305     XY       3.4605     YY     -26.4284
        XZ       0.0000     YZ      -0.0000     ZZ     -32.5713

 Total job time:  11151.39s(wall), 137001.15s(cpu)
        *  Thank you very much for using Q-Chem.  Have a nice day.  *
