 Q-Chem 5.1, Q-Chem, Inc., Pleasanton, CA (2018)
 Q-Chem 5.1.1 for Intel X86 EM64T Linux

User input:
--------------------------------------------------------------
$molecule
0 1
O       -1.098234    0.309725    0.000000
C       -0.000000    1.095221    0.000000
H       -0.164627    2.152475    0.000000
N        1.125722    0.455572    0.000000
C        0.751792   -0.873141    0.000000
H        1.468861   -1.667200    0.000000
C       -0.600121   -0.954966    0.000000
H       -1.308439   -1.754762    0.000000
$end

$rem
method				cvs-adc(2)-x
ee_singlets			10
basis				gen
purecart			1111
cc_symmetry			false
symmetry			false
threads				30
mem_total			90000
mem_static			2000
adc_davidson_maxsubspace	200
adc_davidson_maxiter		500
cc_rest_occ			5
$end

$basis
****
O     0
aug-cc-pVTZ
****
N     0
aug-cc-pVTZ
****
C     0
aug-cc-pVTZ
****
H     0
cc-pVDZ
****
$end
--------------------------------------------------------------

             Standard Nuclear Orientation (Angstroms)
    I     Atom           X                Y                Z
 ----------------------------------------------------------------
    1      O      -0.3849693990    -1.0741723428    -0.0000000000
    2      C      -1.0925962907     0.0757781200    -0.0000000000
    3      H      -2.1587071127    -0.0153030799    -0.0000000000
    4      N      -0.3765916384     1.1545451024    -0.0000000000
    5      C       0.9230649425     0.6895777348     0.0000000000
    6      H       1.7648349023     1.3499874417     0.0000000000
    7      C       0.9111551570    -0.6647568794     0.0000000000
    8      H       1.6600260186    -1.4267151876     0.0000000000
 ----------------------------------------------------------------

   19    -244.7186485038      4.08E-09 Convergence criterion met
 Total energy in the final basis set = -244.71864850
  Excited state 1 (singlet, A)                                     [converged]
  Term symbol:  2 (1) A                                     R^2 =  2.08908e-11
  Excitation energy:                                             286.075601 eV
  Excited state 2 (singlet, A)                                     [converged]
  Term symbol:  3 (1) A                                     R^2 =  2.26006e-11
  Excitation energy:                                             286.643978 eV
  Excited state 3 (singlet, A)                                     [converged]
  Term symbol:  4 (1) A                                     R^2 =  1.58375e-11
  Excitation energy:                                             287.230927 eV
  Excited state 4 (singlet, A)                                     [converged]
  Term symbol:  5 (1) A                                     R^2 =  1.72845e-11
  Excitation energy:                                             287.774096 eV
  Excited state 5 (singlet, A)                                     [converged]
  Term symbol:  6 (1) A                                     R^2 =  1.04615e-09
  Excitation energy:                                             288.049794 eV
  Excited state 6 (singlet, A)                                     [converged]
  Term symbol:  7 (1) A                                     R^2 =  4.51413e-08
  Excitation energy:                                             288.713266 eV
  Excited state 7 (singlet, A)                                     [converged]
  Term symbol:  8 (1) A                                     R^2 =  8.88488e-07
  Excitation energy:                                             288.763129 eV
  Excited state 8 (singlet, A)                                     [converged]
  Term symbol:  9 (1) A                                     R^2 =  2.39316e-07
  Excitation energy:                                             288.867957 eV
  Excited state 9 (singlet, A)                                     [converged]
  Term symbol:  10 (1) A                                    R^2 =  1.63719e-08
  Excitation energy:                                             288.907493 eV
  Excited state 10 (singlet, A)                                     [converged]
  Term symbol:  11 (1) A                                    R^2 =  6.13559e-10
  Excitation energy:                                             289.074334 eV

             Orbital Energies (a.u.) and Symmetries
 --------------------------------------------------------------

 Alpha MOs, Restricted
 -- Occupied --
-20.648 -15.572 -11.338 -11.297 -11.265  -1.498  -1.241  -1.039
  1 A'    2 A'    3 A'    4 A'    5 A'    6 A'    7 A'    8 A'
 -0.848  -0.826  -0.759  -0.666  -0.634  -0.600  -0.584  -0.468
  9 A'   10 A'   11 A'    1 A"   12 A'   13 A'   14 A'   15 A'
 -0.460  -0.348
  2 A"    3 A"

 Beta MOs, Restricted
 -- Occupied --
-20.648 -15.572 -11.338 -11.297 -11.265  -1.498  -1.241  -1.039
  1 A'    2 A'    3 A'    4 A'    5 A'    6 A'    7 A'    8 A'
 -0.848  -0.826  -0.759  -0.666  -0.634  -0.600  -0.584  -0.468
  9 A'   10 A'   11 A'    1 A"   12 A'   13 A'   14 A'   15 A'
 -0.460  -0.348
  2 A"    3 A"

          Ground-State Mulliken Net Atomic Charges

     Atom                 Charge (a.u.)
  ----------------------------------------
      1 O                    -0.185405
      2 C                     0.146857
      3 H                     0.084657
      4 N                    -0.240618
      5 C                     0.126710
      6 H                    -0.038883
      7 C                     0.157591
      8 H                    -0.050910
  ----------------------------------------
  Sum of atomic charges =     0.000000

                    Cartesian Multipole Moments
 -----------------------------------------------------------------
    Charge (ESU x 10^10)
                -0.0000
    Dipole Moment (Debye)
         X       0.5848      Y      -1.3720      Z      -0.0000
       Tot       1.4914
    Quadrupole Moments (Debye-Ang)
        XX     -22.4833     XY       0.7600     YY     -31.9278
        XZ      -0.0000     YZ      -0.0000     ZZ     -30.4770

 Total job time:  10150.36s(wall), 104906.77s(cpu)
        *  Thank you very much for using Q-Chem.  Have a nice day.  *
