 Q-Chem 5.1, Q-Chem, Inc., Pleasanton, CA (2018)
 Q-Chem 5.1.1 for Intel X86 EM64T Linux

User input:
--------------------------------------------------------------
$molecule
0 1
C        0.000000    0.000000    0.141734
F        0.000000    1.058749   -0.632048
F       -0.000000   -1.058749   -0.632048
O        0.000000    0.000000    1.315807
$end

$rem
method				cvs-adc(2)-x
ee_singlets			10
basis				gen
purecart			1111
cc_symmetry			false
symmetry			false
threads				30
mem_total			90000
mem_static			2000
adc_davidson_maxsubspace	200
adc_davidson_maxiter		500
cc_rest_occ			4
$end

$basis
****
C     0
aug-cc-pVTZ
****
F     0
cc-pVTZ
****
O     0
aug-cc-pVTZ
****
$end
--------------------------------------------------------------

             Standard Nuclear Orientation (Angstroms)
    I     Atom           X                Y                Z
 ----------------------------------------------------------------
    1      C       0.0000000000     0.0000000000     0.1417341250
    2      F       1.0587490000     0.0000000000    -0.6320478750
    3      F      -1.0587490000    -0.0000000000    -0.6320478750
    4      O       0.0000000000     0.0000000000     1.3158071250
 ----------------------------------------------------------------

   17    -311.7396389801      1.71E-09 Convergence criterion met
 Total energy in the final basis set = -311.73963898
  Excited state 1 (singlet, A)                                     [converged]
  Term symbol:  2 (1) A                                     R^2 =  6.09163e-12
  Excitation energy:                                             291.383291 eV
  Excited state 2 (singlet, A)                                     [converged]
  Term symbol:  3 (1) A                                     R^2 =  4.34769e-11
  Excitation energy:                                             295.173574 eV
  Excited state 3 (singlet, A)                                     [converged]
  Term symbol:  4 (1) A                                     R^2 =  2.12265e-09
  Excitation energy:                                             297.555739 eV
  Excited state 4 (singlet, A)                                     [converged]
  Term symbol:  5 (1) A                                     R^2 =  9.74726e-10
  Excitation energy:                                             297.766043 eV
  Excited state 5 (singlet, A)                                     [converged]
  Term symbol:  6 (1) A                                     R^2 =  1.55957e-08
  Excitation energy:                                             297.819980 eV
  Excited state 6 (singlet, A)                                     [converged]
  Term symbol:  7 (1) A                                     R^2 =  1.22361e-09
  Excitation energy:                                             298.381846 eV
  Excited state 7 (singlet, A)                                     [converged]
  Term symbol:  8 (1) A                                     R^2 =  1.98289e-07
  Excitation energy:                                             298.631277 eV
  Excited state 8 (singlet, A)                                     [converged]
  Term symbol:  9 (1) A                                     R^2 =  6.01992e-07
  Excitation energy:                                             298.895183 eV
  Excited state 9 (singlet, A)                                     [converged]
  Term symbol:  10 (1) A                                    R^2 =  8.20949e-09
  Excitation energy:                                             300.013260 eV
  Excited state 10 (singlet, A)                                     [converged]
  Term symbol:  11 (1) A                                    R^2 =  1.19219e-08
  Excitation energy:                                             300.167147 eV

             Orbital Energies (a.u.) and Symmetries
 --------------------------------------------------------------

 Alpha MOs, Restricted
 -- Occupied --
-26.392 -26.392 -20.620 -11.534  -1.763  -1.686  -1.477  -0.958
  1 B1    1 A1    2 A1    3 A1    4 A1    2 B1    5 A1    6 A1
 -0.865  -0.817  -0.806  -0.727  -0.705  -0.704  -0.576  -0.558
  3 B1    1 B2    7 A1    1 A2    4 B1    8 A1    2 B2    5 B1

 Beta MOs, Restricted
 -- Occupied --
-26.392 -26.392 -20.620 -11.534  -1.763  -1.686  -1.477  -0.958
  1 B1    1 A1    2 A1    3 A1    4 A1    2 B1    5 A1    6 A1
 -0.865  -0.817  -0.806  -0.727  -0.705  -0.704  -0.576  -0.558
  3 B1    1 B2    7 A1    1 A2    4 B1    8 A1    2 B2    5 B1

          Ground-State Mulliken Net Atomic Charges

     Atom                 Charge (a.u.)
  ----------------------------------------
      1 C                     0.511137
      2 F                    -0.094557
      3 F                    -0.094557
      4 O                    -0.322023
  ----------------------------------------
  Sum of atomic charges =     0.000000

                    Cartesian Multipole Moments
 -----------------------------------------------------------------
    Charge (ESU x 10^10)
                 0.0000
    Dipole Moment (Debye)
         X      -0.0000      Y      -0.0000      Z      -1.2453
       Tot       1.2453
    Quadrupole Moments (Debye-Ang)
        XX     -21.2280     XY      -0.0000     YY     -18.6582
        XZ       0.0000     YZ      -0.0000     ZZ     -23.4532

 Total job time:  756.75s(wall), 12223.25s(cpu)
        *  Thank you very much for using Q-Chem.  Have a nice day.  *
