 Q-Chem 5.1, Q-Chem, Inc., Pleasanton, CA (2018)
 Q-Chem 5.1.1 for Intel X86 EM64T Linux

User input:
--------------------------------------------------------------
$molecule
0 1
 C     0.000000     0.000000    -0.663984
 C     0.000000     0.000000     0.663984
 H     0.000000     0.919796    -1.223061
 H     0.000000    -0.919796    -1.223061
 H     0.000000     0.919796     1.223061
 H     0.000000    -0.919796     1.223061
$end

$rem
method				cvs-adc(2)-x
ee_singlets			10
basis				gen
purecart			1111
cc_symmetry			false
symmetry			false
threads				30
mem_total			80000
mem_static			2000
adc_davidson_maxsubspace	200
adc_davidson_maxiter		500
cc_rest_occ			2
$end

$basis
****
C     0
aug-cc-pVTZ
****
H     0
cc-pVDZ
****
$end
--------------------------------------------------------------

             Standard Nuclear Orientation (Angstroms)
    I     Atom           X                Y                Z
 ----------------------------------------------------------------
    1      C       0.6639840000     0.0000000000    -0.0000000000
    2      C      -0.6639840000    -0.0000000000     0.0000000000
    3      H       1.2230610000     0.9197960000    -0.0000000000
    4      H       1.2230610000    -0.9197960000    -0.0000000000
    5      H      -1.2230610000     0.9197960000     0.0000000000
    6      H      -1.2230610000    -0.9197960000     0.0000000000
 ----------------------------------------------------------------

   12     -78.0593855761      2.81E-09 Convergence criterion met
 Total energy in the final basis set = -78.05938558
  Excited state 1 (singlet, A)                                     [converged]
  Term symbol:  2 (1) A                                     R^2 =  1.03603e-10
  Excitation energy:                                             284.537675 eV
  Excited state 2 (singlet, A)                                     [converged]
  Term symbol:  3 (1) A                                     R^2 =  8.07478e-11
  Excitation energy:                                             284.561705 eV
  Excited state 3 (singlet, A)                                     [converged]
  Term symbol:  4 (1) A                                     R^2 =  1.27636e-07
  Excitation energy:                                             287.106712 eV
  Excited state 4 (singlet, A)                                     [converged]
  Term symbol:  5 (1) A                                     R^2 =  2.16784e-07
  Excitation energy:                                             287.151217 eV
  Excited state 5 (singlet, A)                                     [converged]
  Term symbol:  6 (1) A                                     R^2 =  5.32503e-07
  Excitation energy:                                             287.617478 eV
  Excited state 6 (singlet, A)                                     [converged]
  Term symbol:  7 (1) A                                     R^2 =  5.89493e-07
  Excitation energy:                                             287.671802 eV
  Excited state 7 (singlet, A)                                     [converged]
  Term symbol:  8 (1) A                                     R^2 =  6.85491e-07
  Excitation energy:                                             287.740872 eV
  Excited state 8 (singlet, A)                                     [converged]
  Term symbol:  9 (1) A                                     R^2 =  5.57308e-07
  Excitation energy:                                             287.781652 eV
  Excited state 9 (singlet, A)                                     [converged]
  Term symbol:  10 (1) A                                    R^2 =  3.63774e-07
  Excitation energy:                                             288.230973 eV
  Excited state 10 (singlet, A)                                     [converged]
  Term symbol:  11 (1) A                                    R^2 =  4.38985e-07
  Excitation energy:                                             288.283271 eV

             Orbital Energies (a.u.) and Symmetries
 --------------------------------------------------------------

 Alpha MOs, Restricted
 -- Occupied --
-11.229 -11.227  -1.037  -0.794  -0.647  -0.589  -0.509  -0.378
  1 Ag    1 B3u   2 Ag    2 B3u   1 B2u   3 Ag    1 B1g   1 B1u

 Beta MOs, Restricted
 -- Occupied --
-11.229 -11.227  -1.037  -0.794  -0.647  -0.589  -0.509  -0.378
  1 Ag    1 B3u   2 Ag    2 B3u   1 B2u   3 Ag    1 B1g   1 B1u

          Ground-State Mulliken Net Atomic Charges

     Atom                 Charge (a.u.)
  ----------------------------------------
      1 C                     0.191825
      2 C                     0.191825
      3 H                    -0.095912
      4 H                    -0.095912
      5 H                    -0.095912
      6 H                    -0.095912
  ----------------------------------------
  Sum of atomic charges =     0.000000

                    Cartesian Multipole Moments
 -----------------------------------------------------------------
    Charge (ESU x 10^10)
                 0.0000
    Dipole Moment (Debye)
         X      -0.0000      Y      -0.0000      Z       0.0000
       Tot       0.0000
    Quadrupole Moments (Debye-Ang)
        XX     -12.1952     XY       0.0000     YY     -12.3811
        XZ      -0.0000     YZ      -0.0000     ZZ     -16.0514

 Total job time:  504.53s(wall), 6706.63s(cpu)
        *  Thank you very much for using Q-Chem.  Have a nice day.  *
