 Q-Chem 5.1, Q-Chem, Inc., Pleasanton, CA (2018)
 Q-Chem 5.1.1 for Intel X86 EM64T Linux

User input:
--------------------------------------------------------------
$molecule
0 1
 C     0.000000     0.000000     0.567636
 O     0.000000     0.000000    -0.567636
$end

$rem
method				cvs-adc(2)-x
ee_singlets			10
basis				gen
purecart			1111
cc_symmetry			false
symmetry			false
threads				30
mem_total			80000
mem_static			2000
adc_davidson_maxsubspace	200
adc_davidson_maxiter		500
cc_rest_occ			2
$end

$basis
****
C     0
aug-cc-pVTZ
****
O     0
aug-cc-pVTZ
****
$end
--------------------------------------------------------------

             Standard Nuclear Orientation (Angstroms)
    I     Atom           X                Y                Z
 ----------------------------------------------------------------
    1      C       0.0000000000     0.0000000000     0.6487268571
    2      O       0.0000000000     0.0000000000    -0.4865451429
 ----------------------------------------------------------------

   14    -112.7804806674      2.52E-09 Convergence criterion met
 Total energy in the final basis set = -112.78048067
  Excited state 1 (singlet, A)                                     [converged]
  Term symbol:  2 (1) A                                     R^2 =  2.16910e-12
  Excitation energy:                                             287.200196 eV
  Excited state 2 (singlet, A)                                     [converged]
  Term symbol:  3 (1) A                                     R^2 =  8.42308e-12
  Excitation energy:                                             287.200196 eV
  Excited state 3 (singlet, A)                                     [converged]
  Term symbol:  4 (1) A                                     R^2 =  4.93636e-11
  Excitation energy:                                             292.836423 eV
  Excited state 4 (singlet, A)                                     [converged]
  Term symbol:  5 (1) A                                     R^2 =  4.55714e-10
  Excitation energy:                                             293.937268 eV
  Excited state 5 (singlet, A)                                     [converged]
  Term symbol:  6 (1) A                                     R^2 =  1.26110e-09
  Excitation energy:                                             293.937268 eV
  Excited state 6 (singlet, A)                                     [converged]
  Term symbol:  7 (1) A                                     R^2 =  9.48768e-11
  Excitation energy:                                             294.171010 eV
  Excited state 7 (singlet, A)                                     [converged]
  Term symbol:  8 (1) A                                     R^2 =  7.94197e-10
  Excitation energy:                                             295.891994 eV
  Excited state 8 (singlet, A)                                     [converged]
  Term symbol:  9 (1) A                                     R^2 =  2.67790e-08
  Excitation energy:                                             296.340359 eV
  Excited state 9 (singlet, A)                                     [converged]
  Term symbol:  10 (1) A                                    R^2 =  8.76148e-08
  Excitation energy:                                             296.340359 eV
  Excited state 10 (singlet, A)                                     [converged]
  Term symbol:  11 (1) A                                    R^2 =  6.86226e-07
  Excitation energy:                                             297.379118 eV

                    Orbital Energies (a.u.)
 --------------------------------------------------------------

 Alpha MOs
 -- Occupied --
-20.668 -11.365  -1.518  -0.804  -0.637  -0.637  -0.556

          Ground-State Mulliken Net Atomic Charges

     Atom                 Charge (a.u.)
  ----------------------------------------
      1 C                     0.143988
      2 O                    -0.143988
  ----------------------------------------
  Sum of atomic charges =    -0.000000

                    Cartesian Multipole Moments
 -----------------------------------------------------------------
    Charge (ESU x 10^10)
                -0.0000
    Dipole Moment (Debye)
         X       0.0000      Y       0.0000      Z       0.3019
       Tot       0.3019
    Quadrupole Moments (Debye-Ang)
        XX     -10.2380     XY      -0.0000     YY     -10.2380
        XZ       0.0000     YZ       0.0000     ZZ     -12.2984

 Total job time:  359.93s(wall), 4108.42s(cpu)
        *  Thank you very much for using Q-Chem.  Have a nice day.  *
