 Q-Chem 5.1, Q-Chem, Inc., Pleasanton, CA (2018)
 Q-Chem 5.1.1 for Intel X86 EM64T Linux

User input:
--------------------------------------------------------------
$molecule
0 1
 C     0.000000    -1.442144     0.000000
 C     0.000000    -0.125840     0.000000
 F    -1.075597     0.629115     0.000000
 H     0.933612    -1.965044     0.000000
 H    -0.933612    -1.965044     0.000000
 F     1.075597     0.629115     0.000000
$end

$rem
method				cvs-adc(2)-x
ee_singlets			10
basis				gen
purecart			1111
cc_symmetry			false
symmetry			false
threads				30
mem_total			80000
mem_static			2000
adc_davidson_maxsubspace	200
adc_davidson_maxiter		500
cc_rest_occ			4
$end

$basis
****
C     0
aug-cc-pVTZ
****
H     0
cc-pVDZ
****
F     0
cc-pVTZ
****
$end
--------------------------------------------------------------

             Standard Nuclear Orientation (Angstroms)
    I     Atom           X                Y                Z
 ----------------------------------------------------------------
    1      C       0.0000000000     0.0000000000     1.3792089375
    2      C       0.0000000000     0.0000000000     0.0629049375
    3      F       1.0755970000    -0.0000000000    -0.6920500625
    4      H      -0.9336120000     0.0000000000     1.9021089375
    5      H       0.9336120000     0.0000000000     1.9021089375
    6      F      -1.0755970000     0.0000000000    -0.6920500625
 ----------------------------------------------------------------

   17    -275.8495902150      1.33E-09 Convergence criterion met
 Total energy in the final basis set = -275.84959022
  Excited state 1 (singlet, A)                                     [converged]
  Term symbol:  2 (1) A                                     R^2 =  2.25535e-12
  Excitation energy:                                             285.400512 eV
  Excited state 2 (singlet, A)                                     [converged]
  Term symbol:  3 (1) A                                     R^2 =  5.59704e-10
  Excitation energy:                                             287.337488 eV
  Excited state 3 (singlet, A)                                     [converged]
  Term symbol:  4 (1) A                                     R^2 =  4.16358e-10
  Excitation energy:                                             288.046687 eV
  Excited state 4 (singlet, A)                                     [converged]
  Term symbol:  5 (1) A                                     R^2 =  9.83815e-09
  Excitation energy:                                             288.344717 eV
  Excited state 5 (singlet, A)                                     [converged]
  Term symbol:  6 (1) A                                     R^2 =  6.63752e-12
  Excitation energy:                                             288.713572 eV
  Excited state 6 (singlet, A)                                     [converged]
  Term symbol:  7 (1) A                                     R^2 =  1.08556e-09
  Excitation energy:                                             289.103252 eV
  Excited state 7 (singlet, A)                                     [converged]
  Term symbol:  8 (1) A                                     R^2 =  1.05085e-07
  Excitation energy:                                             289.568195 eV
  Excited state 8 (singlet, A)                                     [converged]
  Term symbol:  9 (1) A                                     R^2 =  1.45066e-09
  Excitation energy:                                             289.827966 eV
  Excited state 9 (singlet, A)                                     [converged]
  Term symbol:  10 (1) A                                    R^2 =  3.96305e-11
  Excitation energy:                                             290.025962 eV
  Excited state 10 (singlet, A)                                     [converged]
  Term symbol:  11 (1) A                                    R^2 =  6.64241e-07
  Excitation energy:                                             290.128875 eV

             Orbital Energies (a.u.) and Symmetries
 --------------------------------------------------------------

 Alpha MOs, Restricted
 -- Occupied --
-26.349 -26.349 -11.428 -11.241  -1.709  -1.643  -1.073  -0.890
  1 B1    1 A1    2 A1    3 A1    4 A1    2 B1    5 A1    6 A1
 -0.808  -0.767  -0.754  -0.692  -0.670  -0.638  -0.601  -0.393
  3 B1    1 B2    7 A1    1 A2    4 B1    8 A1    5 B1    2 B2

 Beta MOs, Restricted
 -- Occupied --
-26.349 -26.349 -11.428 -11.241  -1.709  -1.643  -1.073  -0.890
  1 B1    1 A1    2 A1    3 A1    4 A1    2 B1    5 A1    6 A1
 -0.808  -0.767  -0.754  -0.692  -0.670  -0.638  -0.601  -0.393
  3 B1    1 B2    7 A1    1 A2    4 B1    8 A1    5 B1    2 B2

          Ground-State Mulliken Net Atomic Charges

     Atom                 Charge (a.u.)
  ----------------------------------------
      1 C                     0.061896
      2 C                     0.307866
      3 F                    -0.132156
      4 H                    -0.052725
      5 H                    -0.052725
      6 F                    -0.132156
  ----------------------------------------
  Sum of atomic charges =     0.000000

                    Cartesian Multipole Moments
 -----------------------------------------------------------------
    Charge (ESU x 10^10)
                 0.0000
    Dipole Moment (Debye)
         X       0.0000      Y      -0.0000      Z       1.4109
       Tot       1.4109
    Quadrupole Moments (Debye-Ang)
        XX     -22.3280     XY      -0.0000     YY     -22.6286
        XZ      -0.0000     YZ      -0.0000     ZZ     -20.4238

 Total job time:  967.71s(wall), 16343.21s(cpu)
        *  Thank you very much for using Q-Chem.  Have a nice day.  *
