 Q-Chem 5.1, Q-Chem, Inc., Pleasanton, CA (2018)
 Q-Chem 5.1.1 for Intel X86 EM64T Linux

User input:
--------------------------------------------------------------
$molecule
0 1
O        0.000000    0.000000    0.447337
O       -0.000000    1.089161   -0.223668
O       -0.000000   -1.089161   -0.223668
$end

$rem
method				cvs-adc(2)-x
ee_singlets			10
basis				gen
purecart			1111
cc_symmetry			false
symmetry			false
threads				30
mem_total			90000
mem_static			2000
adc_davidson_maxsubspace	200
adc_davidson_maxiter		500
cc_rest_occ			3
$end

$basis
****
O     0
aug-cc-pVTZ
****
$end
--------------------------------------------------------------

             Standard Nuclear Orientation (Angstroms)
    I     Atom           X                Y                Z
 ----------------------------------------------------------------
    1      O       0.0000000000     0.0000000000     0.4473366667
    2      O      -1.0891610000    -0.0000000000    -0.2236683333
    3      O       1.0891610000     0.0000000000    -0.2236683333
 ----------------------------------------------------------------

   16    -224.3422349544      2.67E-09 Convergence criterion met
 Total energy in the final basis set = -224.34223495
  Excited state 1 (singlet, A)                                     [converged]
  Term symbol:  2 (1) A                                     R^2 =  1.60160e-12
  Excitation energy:                                             528.778236 eV
  Excited state 2 (singlet, A)                                     [converged]
  Term symbol:  3 (1) A                                     R^2 =  1.49845e-12
  Excitation energy:                                             528.778480 eV
  Excited state 3 (singlet, A)                                     [converged]
  Term symbol:  4 (1) A                                     R^2 =  1.82498e-12
  Excitation energy:                                             533.791944 eV
  Excited state 4 (singlet, A)                                     [converged]
  Term symbol:  5 (1) A                                     R^2 =  4.41219e-10
  Excitation energy:                                             535.069609 eV
  Excited state 5 (singlet, A)                                     [converged]
  Term symbol:  6 (1) A                                     R^2 =  5.33780e-10
  Excitation energy:                                             535.072887 eV
  Excited state 6 (singlet, A)                                     [converged]
  Term symbol:  7 (1) A                                     R^2 =  2.15052e-07
  Excitation energy:                                             537.767950 eV
  Excited state 7 (singlet, A)                                     [converged]
  Term symbol:  8 (1) A                                     R^2 =  2.04318e-07
  Excitation energy:                                             537.769955 eV
  Excited state 8 (singlet, A)                                     [converged]
  Term symbol:  9 (1) A                                     R^2 =  5.64280e-07
  Excitation energy:                                             538.015850 eV
  Excited state 9 (singlet, A)                                     [converged]
  Term symbol:  10 (1) A                                    R^2 =  6.73601e-07
  Excitation energy:                                             538.017928 eV
  Excited state 10 (singlet, A)                                     [converged]
  Term symbol:  11 (1) A                                    R^2 =  1.44622e-08
  Excitation energy:                                             538.832798 eV

             Orbital Energies (a.u.) and Symmetries
 --------------------------------------------------------------

 Alpha MOs, Restricted
 -- Occupied --
-20.923 -20.713 -20.713  -1.747  -1.430  -1.098  -0.831  -0.800
  1 A1    1 B1    2 A1    3 A1    2 B1    4 A1    5 A1    3 B1
 -0.779  -0.566  -0.555  -0.489
  1 B2    4 B1    6 A1    1 A2

 Beta MOs, Restricted
 -- Occupied --
-20.923 -20.713 -20.713  -1.747  -1.430  -1.098  -0.831  -0.800
  1 A1    1 B1    2 A1    3 A1    2 B1    4 A1    5 A1    3 B1
 -0.779  -0.566  -0.555  -0.489
  1 B2    4 B1    6 A1    1 A2

          Ground-State Mulliken Net Atomic Charges

     Atom                 Charge (a.u.)
  ----------------------------------------
      1 O                     0.334132
      2 O                    -0.167066
      3 O                    -0.167066
  ----------------------------------------
  Sum of atomic charges =     0.000000

                    Cartesian Multipole Moments
 -----------------------------------------------------------------
    Charge (ESU x 10^10)
                -0.0000
    Dipole Moment (Debye)
         X       0.0000      Y      -0.0000      Z       0.7866
       Tot       0.7866
    Quadrupole Moments (Debye-Ang)
        XX     -17.2725     XY       0.0000     YY     -14.9259
        XZ      -0.0000     YZ       0.0000     ZZ     -15.7462

 Total job time:  983.11s(wall), 15322.13s(cpu)
        *  Thank you very much for using Q-Chem.  Have a nice day.  *
