 Q-Chem 5.1, Q-Chem, Inc., Pleasanton, CA (2018)
 Q-Chem 5.1.1 for Intel X86 EM64T Linux

User input:
--------------------------------------------------------------
$molecule
0 1
C       -1.308546   -0.044207   -0.000142
N        0.168262    0.001157    0.000016
H       -1.647162    0.479278   -0.883100
H       -1.647337    0.478907    0.882970
H       -1.617388   -1.077246   -0.000387
O        0.679026    1.112132    0.000252
O        0.769141   -1.065107   -0.000095
$end

$rem
method				cvs-adc(2)-x
ee_singlets			10
basis				gen
purecart			1111
cc_symmetry			false
symmetry			false
threads				30
mem_total			90000
mem_static			2000
adc_davidson_maxsubspace	200
adc_davidson_maxiter		500
cc_rest_occ			3
$end

$basis
****
O     0
aug-cc-pVTZ
****
N     0
aug-cc-pVTZ
****
H     0
cc-pVDZ
****
C     0
cc-pVTZ
****
$end
--------------------------------------------------------------

             Standard Nuclear Orientation (Angstroms)
    I     Atom           X                Y                Z
 ----------------------------------------------------------------
    1      C       1.3085461713     0.0442085080    -0.0000004766
    2      N      -0.1682617806    -0.0011573347    -0.0000014219
    3      H       1.6472534142    -0.4791315673    -0.8830093892
    4      H       1.6472472146    -0.4790495943     0.8830606565
    5      H       1.6173869062     1.0772479143    -0.0000447268
    6      O      -0.6790244162    -1.1121329870     0.0000003564
    7      O      -0.7691420961     1.0651059297     0.0000004277
 ----------------------------------------------------------------

   18    -243.7551784234      2.32E-09 Convergence criterion met
 Total energy in the final basis set = -243.75517842
  Excited state 1 (singlet, A)                                     [converged]
  Term symbol:  2 (1) A                                     R^2 =  4.13109e-12
  Excitation energy:                                             403.325983 eV
  Excited state 2 (singlet, A)                                     [converged]
  Term symbol:  3 (1) A                                     R^2 =  7.63514e-10
  Excitation energy:                                             409.107628 eV
  Excited state 3 (singlet, A)                                     [converged]
  Term symbol:  4 (1) A                                     R^2 =  6.22331e-09
  Excitation energy:                                             410.003199 eV
  Excited state 4 (singlet, A)                                     [converged]
  Term symbol:  5 (1) A                                     R^2 =  1.31768e-07
  Excitation energy:                                             410.305378 eV
  Excited state 5 (singlet, A)                                     [converged]
  Term symbol:  6 (1) A                                     R^2 =  2.35139e-08
  Excitation energy:                                             410.598866 eV
  Excited state 6 (singlet, A)                                     [converged]
  Term symbol:  7 (1) A                                     R^2 =  3.04734e-07
  Excitation energy:                                             410.616264 eV
  Excited state 7 (singlet, A)                                     [converged]
  Term symbol:  8 (1) A                                     R^2 =  8.61633e-07
  Excitation energy:                                             410.684102 eV
  Excited state 8 (singlet, A)                                     [converged]
  Term symbol:  9 (1) A                                     R^2 =  5.71831e-08
  Excitation energy:                                             410.830872 eV
  Excited state 9 (singlet, A)                                     [converged]
  Term symbol:  10 (1) A                                    R^2 =  6.09401e-07
  Excitation energy:                                             411.503849 eV
  Excited state 10 (singlet, A)                                     [converged]
  Term symbol:  11 (1) A                                    R^2 =  1.77595e-07
  Excitation energy:                                             411.676376 eV

                    Orbital Energies (a.u.)
 --------------------------------------------------------------

 Alpha MOs
 -- Occupied --
-20.612 -20.609 -15.855 -11.310  -1.611  -1.406  -1.109  -0.873
 -0.758  -0.740  -0.739  -0.630  -0.603  -0.500  -0.498  -0.459

          Ground-State Mulliken Net Atomic Charges

     Atom                 Charge (a.u.)
  ----------------------------------------
      1 C                     0.077860
      2 N                     0.819956
      3 H                     0.053697
      4 H                     0.053698
      5 H                     0.051650
      6 O                    -0.538609
      7 O                    -0.518253
  ----------------------------------------
  Sum of atomic charges =    -0.000000

                    Cartesian Multipole Moments
 -----------------------------------------------------------------
    Charge (ESU x 10^10)
                -0.0000
    Dipole Moment (Debye)
         X       4.0877      Y       0.1594      Z      -0.0000
       Tot       4.0908
    Quadrupole Moments (Debye-Ang)
        XX     -21.9005     XY       0.1192     YY     -26.9953
        XZ       0.0000     YZ      -0.0000     ZZ     -21.7486

 Total job time:  1446.23s(wall), 24142.16s(cpu)
        *  Thank you very much for using Q-Chem.  Have a nice day.  *
